# vtk DataFile Version 3.0
Mesh data with polygons
ASCII
DATASET POLYDATA
POINTS 25 float
0.0 0.0 0
0.1 0.0 0
0.2 0.0 0
0.30000000000000004 0.0 0
0.4 0.0 0
0.0 0.1 0
0.1 0.1 0
0.2 0.1 0
0.30000000000000004 0.1 0
0.4 0.1 0
0.0 0.2 0
0.1 0.2 0
0.2 0.2 0
0.30000000000000004 0.2 0
0.4 0.2 0
0.0 0.30000000000000004 0
0.1 0.30000000000000004 0
0.2 0.30000000000000004 0
0.30000000000000004 0.30000000000000004 0
0.4 0.30000000000000004 0
0.0 0.4 0
0.1 0.4 0
0.2 0.4 0
0.30000000000000004 0.4 0
0.4 0.4 0
LINES 16 48
2 0 1
2 1 2
2 2 3
2 3 4
2 20 21
2 21 22
2 22 23
2 23 24
2 0 5
2 5 10
2 10 15
2 15 20
2 4 9
2 9 14
2 14 19
2 19 24
POLYGONS 32 128
3 0 1 5
3 1 6 5
3 1 2 6
3 2 7 6
3 2 3 7
3 3 8 7
3 3 4 8
3 4 9 8
3 5 6 10
3 6 11 10
3 6 7 11
3 7 12 11
3 7 8 12
3 8 13 12
3 8 9 13
3 9 14 13
3 10 11 15
3 11 16 15
3 11 12 16
3 12 17 16
3 12 13 17
3 13 18 17
3 13 14 18
3 14 19 18
3 15 16 20
3 16 21 20
3 16 17 21
3 17 22 21
3 17 18 22
3 18 23 22
3 18 19 23
3 19 24 23
POINT_DATA 25
SCALARS value double 1
LOOKUP_TABLE default
5.650371030488565e+46
2.825095762052401e+46
2.129632484865858e+46
1.7391920019748166e+46
1.1795133865365936e+46
2.825095762052553e+46
2.346821908957176e+46
2.0132351728679525e+46
1.7994451477115284e+46
1.738998021911455e+46
2.1296324848664585e+46
2.0132351728684195e+46
1.9596415814266725e+46
2.0128456125071037e+46
2.1290017033656658e+46
1.739192001975805e+46
1.7994451477124104e+46
2.0128456125075705e+46
2.345954093806771e+46
2.8238033343762256e+46
1.1795133865374092e+46
1.7389980219124426e+46
2.1290017033662657e+46
2.8238033343763777e+46
5.647427162685853e+46
