# vtk DataFile Version 3.0
Mesh data with polygons
ASCII
DATASET POLYDATA
POINTS 121 float
0.0 2.0 0
0.0 0.0 0
2.0 0.0 0
2.0 2.0 0
0.5 0.5 0
0.5 1.5 0
1.5 1.5 0
1.5 0.5 0
0.5114381625116149 0.7024605285700734 0
0.5511575834243954 0.9012032611428389 0
0.628448100111682 1.088345036327785 0
0.7499999999999999 1.25 0
0.9116549636722828 1.371551899888356 0
1.09879673885731 1.448842416575648 0
1.297539471430004 1.488561837488394 0
1.250000000001367 0.5 0
1.000000000002361 0.5 0
0.7500000000011804 0.5 0
1.5 1.250000000001367 0
1.5 1.000000000002361 0
1.5 0.7500000000011804 0
0.2499999999995588 0.0 0
0.4999999999988388 0.0 0
0.7499999999981134 0.0 0
0.999999999997388 0.0 0
1.249999999998041 0.0 0
1.499999999998694 0.0 0
1.749999999999347 0.0 0
0.0 0.2499999999995588 0
0.0 0.4999999999988388 0
0.0 0.7499999999981134 0
0.0 0.999999999997388 0
0.0 1.249999999998041 0
0.0 1.499999999998694 0
0.0 1.749999999999347 0
0.2499999999995588 2.0 0
0.4999999999988388 2.0 0
0.7499999999981134 2.0 0
0.999999999997388 2.0 0
1.249999999998041 2.0 0
1.499999999998694 2.0 0
1.749999999999347 2.0 0
2.0 0.2499999999995588 0
2.0 0.4999999999988388 0
2.0 0.7499999999981134 0
2.0 0.999999999997388 0
2.0 1.249999999998041 0
2.0 1.499999999998694 0
2.0 1.749999999999347 0
0.3749999999999999 1.625 0
0.3749999999999999 1.124999999998694 0
0.8749999999986939 1.625 0
0.25 0.7499999999986939 0
1.249999999998694 1.75 0
1.249999999998694 0.25 0
0.7499999999986939 0.25 0
0.25 0.25 0
1.75 0.25 0
1.75 0.7499999999986939 0
1.75 1.75 0
1.75 1.249999999998694 0
0.1875 1.8125 0
0.1875 1.562499999999347 0
0.3749999999999999 1.374999999999347 0
0.1875 1.312499999998694 0
0.5624999999999999 1.4375 0
0.5624999999999999 1.187499999999347 0
0.1875 1.062499999998041 0
0.624999999999347 1.625 0
0.812499999999347 1.4375 0
0.4374999999994194 1.8125 0
0.6874999999987663 1.8125 0
0.9374999999980409 1.8125 0
0.4630787917121977 1.013101630570767 0
0.4005787917121977 0.8256016305707664 0
0.3125 0.9374999999986939 0
0.375 0.624999999999347 0
0.125 0.8749999999980409 0
1.174398369428002 1.599421208287824 0
1.374999999999347 1.625 0
0.9868983694280018 1.536921208287824 0
1.062499999998694 1.6875 0
1.124999999998041 1.875 0
0.8750000000005274 0.375 0
0.624999999999347 0.375 0
1.125000000000527 0.375 0
0.9999999999986939 0.25 0
1.374999999999347 0.375 0
1.124999999998041 0.125 0
0.8749999999980409 0.125 0
0.499999999999347 0.25 0
0.375 0.375 0
0.6249999999987663 0.125 0
0.3749999999994194 0.125 0
0.125 0.125 0
0.25 0.499999999999347 0
0.125 0.3749999999994194 0
0.125 0.6249999999987663 0
1.374999999998694 0.125 0
1.499999999999347 0.25 0
1.624999999999347 0.125 0
1.625 0.375 0
1.875 0.125 0
1.875 0.3749999999994194 0
1.75 0.499999999999347 0
1.875 0.6249999999987663 0
1.625 0.624999999999347 0
1.875 0.8749999999980409 0
1.875 1.875 0
1.624999999999347 1.875 0
1.499999999999347 1.75 0
1.374999999998694 1.875 0
1.625 1.625 0
1.75 1.499999999999347 0
1.625 1.374999999999347 0
1.875 1.624999999999347 0
1.875 1.374999999998694 0
1.875 1.124999999998041 0
1.625 0.8750000000005274 0
1.625 1.125000000000527 0
1.75 0.9999999999986939 0
LINES 48 144
2 4 8
2 8 9
2 9 10
2 10 11
2 11 12
2 12 13
2 13 14
2 14 6
2 7 15
2 15 16
2 16 17
2 17 4
2 6 18
2 18 19
2 19 20
2 20 7
2 1 21
2 21 22
2 22 23
2 23 24
2 24 25
2 25 26
2 26 27
2 27 2
2 1 28
2 28 29
2 29 30
2 30 31
2 31 32
2 32 33
2 33 34
2 34 0
2 0 35
2 35 36
2 36 37
2 37 38
2 38 39
2 39 40
2 40 41
2 41 3
2 2 42
2 42 43
2 43 44
2 44 45
2 45 46
2 46 47
2 47 48
2 48 3
POLYGONS 192 768
3 0 61 34
3 61 62 34
3 61 49 62
3 34 62 33
3 49 63 62
3 63 64 62
3 63 50 64
3 62 64 33
3 49 65 63
3 65 66 63
3 65 11 66
3 63 66 50
3 33 64 32
3 64 67 32
3 64 50 67
3 32 67 31
3 11 65 69
3 65 68 69
3 65 49 68
3 69 68 51
3 49 70 68
3 70 71 68
3 70 36 71
3 68 71 51
3 49 61 70
3 61 35 70
3 61 0 35
3 70 35 36
3 51 71 72
3 71 37 72
3 71 36 37
3 72 37 38
3 11 10 66
3 10 73 66
3 10 9 73
3 66 73 50
3 9 74 73
3 74 75 73
3 74 52 75
3 73 75 50
3 9 8 74
3 8 76 74
3 8 4 76
3 74 76 52
3 50 75 67
3 75 77 67
3 75 52 77
3 67 77 31
3 6 14 79
3 14 78 79
3 14 13 78
3 79 78 53
3 13 80 78
3 80 81 78
3 80 51 81
3 78 81 53
3 13 12 80
3 12 69 80
3 12 11 69
3 80 69 51
3 53 81 82
3 81 72 82
3 81 51 72
3 82 72 38
3 4 17 84
3 17 83 84
3 17 16 83
3 84 83 55
3 16 85 83
3 85 86 83
3 85 54 86
3 83 86 55
3 16 15 85
3 15 87 85
3 15 7 87
3 85 87 54
3 55 86 89
3 86 88 89
3 86 54 88
3 89 88 24
3 4 84 91
3 84 90 91
3 84 55 90
3 91 90 56
3 55 92 90
3 92 93 90
3 92 22 93
3 90 93 56
3 55 89 92
3 89 23 92
3 89 24 23
3 92 23 22
3 56 93 94
3 93 21 94
3 93 22 21
3 94 21 1
3 4 91 76
3 91 95 76
3 91 56 95
3 76 95 52
3 56 96 95
3 96 97 95
3 96 29 97
3 95 97 52
3 56 94 96
3 94 28 96
3 94 1 28
3 96 28 29
3 52 97 77
3 97 30 77
3 97 29 30
3 77 30 31
3 24 88 25
3 88 98 25
3 88 54 98
3 25 98 26
3 54 99 98
3 99 100 98
3 99 57 100
3 98 100 26
3 54 87 99
3 87 101 99
3 87 7 101
3 99 101 57
3 26 100 27
3 100 102 27
3 100 57 102
3 27 102 2
3 2 102 42
3 102 103 42
3 102 57 103
3 42 103 43
3 57 104 103
3 104 105 103
3 104 58 105
3 103 105 43
3 57 101 104
3 101 106 104
3 101 7 106
3 104 106 58
3 43 105 44
3 105 107 44
3 105 58 107
3 44 107 45
3 3 108 41
3 108 109 41
3 108 59 109
3 41 109 40
3 59 110 109
3 110 111 109
3 110 53 111
3 109 111 40
3 59 112 110
3 112 79 110
3 112 6 79
3 110 79 53
3 40 111 39
3 111 82 39
3 111 53 82
3 39 82 38
3 6 112 114
3 112 113 114
3 112 59 113
3 114 113 60
3 59 115 113
3 115 116 113
3 115 47 116
3 113 116 60
3 59 108 115
3 108 48 115
3 108 3 48
3 115 48 47
3 60 116 117
3 116 46 117
3 116 47 46
3 117 46 45
3 7 20 106
3 20 118 106
3 20 19 118
3 106 118 58
3 19 119 118
3 119 120 118
3 119 60 120
3 118 120 58
3 19 18 119
3 18 114 119
3 18 6 114
3 119 114 60
3 58 120 107
3 120 117 107
3 120 60 117
3 107 117 45
POINT_DATA 121
SCALARS vertex_indices int 1
LOOKUP_TABLE default
0
1
2
3
4
5
6
7
8
9
10
11
12
13
14
15
16
17
18
19
20
21
22
23
24
25
26
27
28
29
30
31
32
33
34
35
36
37
38
39
40
41
42
43
44
45
46
47
48
49
50
51
52
53
54
55
56
57
58
59
60
61
62
63
64
65
66
67
68
69
70
71
72
73
74
75
76
77
78
79
80
81
82
83
84
85
86
87
88
89
90
91
92
93
94
95
96
97
98
99
100
101
102
103
104
105
106
107
108
109
110
111
112
113
114
115
116
117
118
119
120
